<?xml version="1.0" encoding="UTF-8"?>

<!-- generated on 2026-02-11T13:51:28.038964+10:00 by Eclipse SUMO sumo 1.26.0
<sumoConfiguration xmlns:xsi="http://www.w3.org/2001/XMLSchema-instance" xsi:noNamespaceSchemaLocation="http://sumo.dlr.de/xsd/sumoConfiguration.xsd">

    <input>
        <net-file value="urban_grid.net.xml"/>
        <route-files value="traffic_routes.rou.xml"/>
    </input>

    <output>
        <fcd-output value="fcd_trace.xml"/>
    </output>

</sumoConfiguration>
-->

<fcd-export xmlns:xsi="http://www.w3.org/2001/XMLSchema-instance" xsi:noNamespaceSchemaLocation="http://sumo.dlr.de/xsd/fcd_file.xsd">
    <timestep time="0.00">
        <vehicle id="0" x="314.40" y="-1.60" angle="90.00" type="truck" speed="0.00" pos="7.20" lane="D0E0_0" slope="0.00"/>
    </timestep>
    <timestep time="1.00">
        <vehicle id="0" x="315.52" y="-1.60" angle="90.00" type="truck" speed="1.12" pos="8.32" lane="D0E0_0" slope="0.00"/>
    </timestep>
    <timestep time="2.00">
        <vehicle id="0" x="317.89" y="-1.60" angle="90.00" type="truck" speed="2.36" pos="10.69" lane="D0E0_0" slope="0.00"/>
    </timestep>
    <timestep time="3.00">
        <vehicle id="0" x="320.92" y="-1.60" angle="90.00" type="truck" speed="3.03" pos="13.72" lane="D0E0_0" slope="0.00"/>
    </timestep>
    <timestep time="4.00">
        <vehicle id="0" x="324.66" y="-1.60" angle="90.00" type="truck" speed="3.74" pos="17.46" lane="D0E0_0" slope="0.00"/>
    </timestep>
    <timestep time="5.00">
        <vehicle id="0" x="329.16" y="-1.60" angle="90.00" type="truck" speed="4.51" pos="21.96" lane="D0E0_0" slope="0.00"/>
    </timestep>
    <timestep time="6.00">
        <vehicle id="0" x="334.35" y="-1.60" angle="90.00" type="truck" speed="5.19" pos="27.15" lane="D0E0_0" slope="0.00"/>
    </timestep>
    <timestep time="7.00">
        <vehicle id="0" x="340.66" y="-1.60" angle="90.00" type="truck" speed="6.31" pos="33.46" lane="D0E0_0" slope="0.00"/>
    </timestep>
    <timestep time="8.00">
        <vehicle id="0" x="347.88" y="-1.60" angle="90.00" type="truck" speed="7.22" pos="40.68" lane="D0E0_0" slope="0.00"/>
    </timestep>
    <timestep time="9.00">
        <vehicle id="0" x="356.12" y="-1.60" angle="90.00" type="truck" speed="8.24" pos="48.92" lane="D0E0_0" slope="0.00"/>
    </timestep>
    <timestep time="10.00">
        <vehicle id="0" x="365.37" y="-1.60" angle="90.00" type="truck" speed="9.25" pos="58.17" lane="D0E0_0" slope="0.00"/>
    </timestep>
    <timestep time="11.00">
        <vehicle id="0" x="375.43" y="-1.60" angle="90.00" type="truck" speed="10.06" pos="68.23" lane="D0E0_0" slope="0.00"/>
    </timestep>
    <timestep time="12.00">
        <vehicle id="0" x="386.42" y="-1.60" angle="90.00" type="truck" speed="10.99" pos="79.22" lane="D0E0_0" slope="0.00"/>
    </timestep>
    <timestep time="13.00">
        <vehicle id="0" x="396.14" y="-1.60" angle="90.00" type="truck" speed="9.73" pos="88.94" lane="D0E0_0" slope="0.00"/>
    </timestep>
    <timestep time="14.00">
        <vehicle id="0" x="401.24" y="1.00" angle="66.72" type="truck" speed="6.16" pos="5.50" lane=":E0_1_0" slope="0.00"/>
    </timestep>
    <timestep time="15.00">
        <vehicle id="0" x="401.60" y="6.79" angle="8.40" type="truck" speed="5.83" pos="3.59" lane="E0E1_0" slope="0.00"/>
    </timestep>
    <timestep time="16.00">
        <vehicle id="0" x="401.60" y="13.71" angle="0.00" type="truck" speed="6.93" pos="10.51" lane="E0E1_0" slope="0.00"/>
    </timestep>
    <timestep time="17.00">
        <vehicle id="0" x="401.60" y="21.65" angle="0.00" type="truck" speed="7.93" pos="18.45" lane="E0E1_0" slope="0.00"/>
    </timestep>
    <timestep time="18.00">
        <vehicle id="0" x="401.60" y="30.88" angle="0.00" type="truck" speed="9.23" pos="27.68" lane="E0E1_0" slope="0.00"/>
    </timestep>
    <timestep time="19.00">
        <vehicle id="0" x="401.60" y="41.19" angle="0.00" type="truck" speed="10.32" pos="37.99" lane="E0E1_0" slope="0.00"/>
    </timestep>
    <timestep time="20.00">
        <vehicle id="0" x="401.60" y="52.48" angle="0.00" type="truck" speed="11.29" pos="49.28" lane="E0E1_0" slope="0.00"/>
    </timestep>
    <timestep time="21.00">
        <vehicle id="0" x="401.60" y="64.91" angle="0.00" type="truck" speed="12.44" pos="61.71" lane="E0E1_0" slope="0.00"/>
    </timestep>
    <timestep time="22.00">
        <vehicle id="0" x="401.60" y="78.11" angle="0.00" type="truck" speed="13.20" pos="74.91" lane="E0E1_0" slope="0.00"/>
    </timestep>
    <timestep time="23.00">
        <vehicle id="0" x="401.60" y="87.91" angle="0.00" type="truck" speed="9.80" pos="84.71" lane="E0E1_0" slope="0.00"/>
    </timestep>
    <timestep time="24.00">
        <vehicle id="0" x="401.42" y="94.07" angle="358.53" type="truck" speed="6.17" pos="1.28" lane=":E1_4_0" slope="0.00"/>
    </timestep>
    <timestep time="25.00">
        <vehicle id="0" x="398.00" y="100.24" angle="329.97" type="truck" speed="7.45" pos="4.66" lane=":E1_10_0" slope="0.00"/>
    </timestep>
    <timestep time="26.00">
        <vehicle id="0" x="390.67" y="101.60" angle="279.09" type="truck" speed="7.60" pos="2.13" lane="E1D1_0" slope="0.00"/>
    </timestep>
    <timestep time="27.00">
        <vehicle id="0" x="382.38" y="101.60" angle="270.00" type="truck" speed="8.29" pos="10.42" lane="E1D1_0" slope="0.00"/>
    </timestep>
    <timestep time="28.00">
        <vehicle id="0" x="372.83" y="101.60" angle="270.00" type="truck" speed="9.55" pos="19.97" lane="E1D1_0" slope="0.00"/>
    </timestep>
    <timestep time="29.00">
        <vehicle id="0" x="362.11" y="101.60" angle="270.00" type="truck" speed="10.72" pos="30.69" lane="E1D1_0" slope="0.00"/>
    </timestep>
    <timestep time="30.00">
        <vehicle id="0" x="350.29" y="101.60" angle="270.00" type="truck" speed="11.83" pos="42.51" lane="E1D1_0" slope="0.00"/>
    </timestep>
    <timestep time="31.00">
        <vehicle id="0" x="337.77" y="101.60" angle="270.00" type="truck" speed="12.51" pos="55.03" lane="E1D1_0" slope="0.00"/>
    </timestep>
    <timestep time="32.00">
        <vehicle id="0" x="324.29" y="101.60" angle="270.00" type="truck" speed="13.49" pos="68.51" lane="E1D1_0" slope="0.00"/>
    </timestep>
    <timestep time="33.00">
        <vehicle id="0" x="314.80" y="101.60" angle="270.00" type="truck" speed="9.49" pos="78.00" lane="E1D1_0" slope="0.00"/>
    </timestep>
    <timestep time="34.00">
        <vehicle id="0" x="309.32" y="101.60" angle="270.00" type="truck" speed="5.49" pos="83.48" lane="E1D1_0" slope="0.00"/>
    </timestep>
    <timestep time="35.00">
        <vehicle id="0" x="302.96" y="101.60" angle="270.00" type="truck" speed="6.36" pos="4.24" lane=":D1_5_0" slope="0.00"/>
    </timestep>
    <timestep time="36.00">
        <vehicle id="0" x="295.48" y="101.60" angle="270.00" type="truck" speed="7.48" pos="11.72" lane=":D1_5_0" slope="0.00"/>
    </timestep>
    <timestep time="37.00">
        <vehicle id="0" x="287.06" y="101.60" angle="270.00" type="truck" speed="8.41" pos="5.74" lane="D1C1_0" slope="0.00"/>
    </timestep>
    <timestep time="38.00">
        <vehicle id="0" x="277.93" y="101.60" angle="270.00" type="truck" speed="9.14" pos="14.87" lane="D1C1_0" slope="0.00"/>
    </timestep>
    <timestep time="39.00">
        <vehicle id="0" x="267.95" y="101.60" angle="270.00" type="truck" speed="9.97" pos="24.85" lane="D1C1_0" slope="0.00"/>
    </timestep>
    <timestep time="40.00">
        <vehicle id="0" x="256.71" y="101.60" angle="270.00" type="truck" speed="11.24" pos="36.09" lane="D1C1_0" slope="0.00"/>
    </timestep>
    <timestep time="41.00">
        <vehicle id="0" x="244.49" y="101.60" angle="270.00" type="truck" speed="12.22" pos="48.31" lane="D1C1_0" slope="0.00"/>
    </timestep>
    <timestep time="42.00">
        <vehicle id="0" x="231.35" y="101.60" angle="270.00" type="truck" speed="13.14" pos="61.45" lane="D1C1_0" slope="0.00"/>
    </timestep>
    <timestep time="43.00">
        <vehicle id="0" x="219.36" y="101.60" angle="270.00" type="truck" speed="11.98" pos="73.44" lane="D1C1_0" slope="0.00"/>
    </timestep>
    <timestep time="44.00">
        <vehicle id="0" x="211.38" y="101.60" angle="270.00" type="truck" speed="7.98" pos="81.42" lane="D1C1_0" slope="0.00"/>
    </timestep>
    <timestep time="45.00">
        <vehicle id="0" x="202.26" y="101.60" angle="270.00" type="truck" speed="9.12" pos="4.94" lane=":C1_5_0" slope="0.00"/>
    </timestep>
    <timestep time="46.00">
        <vehicle id="0" x="192.16" y="101.60" angle="270.00" type="truck" speed="10.10" pos="0.64" lane="C1B1_0" slope="0.00"/>
    </timestep>
    <timestep time="47.00">
        <vehicle id="0" x="181.20" y="101.60" angle="270.00" type="truck" speed="10.96" pos="11.60" lane="C1B1_0" slope="0.00"/>
    </timestep>
    <timestep time="48.00">
        <vehicle id="0" x="168.98" y="101.60" angle="270.00" type="truck" speed="12.22" pos="23.82" lane="C1B1_0" slope="0.00"/>
    </timestep>
    <timestep time="49.00">
        <vehicle id="0" x="155.75" y="101.60" angle="270.00" type="truck" speed="13.23" pos="37.05" lane="C1B1_0" slope="0.00"/>
    </timestep>
    <timestep time="50.00">
        <vehicle id="0" x="142.09" y="101.60" angle="270.00" type="truck" speed="13.66" pos="50.71" lane="C1B1_0" slope="0.00"/>
    </timestep>
    <timestep time="51.00">
        <vehicle id="0" x="128.28" y="101.60" angle="270.00" type="truck" speed="13.80" pos="64.52" lane="C1B1_0" slope="0.00"/>
    </timestep>
    <timestep time="52.00">
        <vehicle id="0" x="117.92" y="101.60" angle="270.00" type="truck" speed="10.36" pos="74.88" lane="C1B1_0" slope="0.00"/>
    </timestep>
    <timestep time="53.00">
        <vehicle id="0" x="111.12" y="101.60" angle="270.00" type="truck" speed="6.80" pos="81.68" lane="C1B1_0" slope="0.00"/>
    </timestep>
    <timestep time="54.00">
        <vehicle id="0" x="103.57" y="101.60" angle="270.00" type="truck" speed="7.55" pos="3.63" lane=":B1_5_0" slope="0.00"/>
    </timestep>
    <timestep time="55.00">
        <vehicle id="0" x="95.03" y="101.60" angle="270.00" type="truck" speed="8.54" pos="12.17" lane=":B1_5_0" slope="0.00"/>
    </timestep>
    <timestep time="56.00">
        <vehicle id="0" x="85.64" y="101.60" angle="270.00" type="truck" speed="9.39" pos="7.16" lane="B1A1_0" slope="0.00"/>
    </timestep>
    <timestep time="57.00">
        <vehicle id="0" x="75.26" y="101.60" angle="270.00" type="truck" speed="10.38" pos="17.54" lane="B1A1_0" slope="0.00"/>
    </timestep>
    <timestep time="58.00">
        <vehicle id="0" x="64.16" y="101.60" angle="270.00" type="truck" speed="11.10" pos="28.64" lane="B1A1_0" slope="0.00"/>
    </timestep>
    <timestep time="59.00">
        <vehicle id="0" x="51.85" y="101.60" angle="270.00" type="truck" speed="12.31" pos="40.95" lane="B1A1_0" slope="0.00"/>
    </timestep>
    <timestep time="60.00">
        <vehicle id="0" x="38.53" y="101.60" angle="270.00" type="truck" speed="13.32" pos="54.27" lane="B1A1_0" slope="0.00"/>
    </timestep>
    <timestep time="61.00">
        <vehicle id="0" x="24.87" y="101.60" angle="270.00" type="truck" speed="13.66" pos="67.93" lane="B1A1_0" slope="0.00"/>
    </timestep>
    <timestep time="62.00">
        <vehicle id="0" x="15.20" y="101.60" angle="270.00" type="truck" speed="9.66" pos="77.60" lane="B1A1_0" slope="0.00"/>
    </timestep>
    <timestep time="63.00">
        <vehicle id="0" x="9.41" y="101.60" angle="270.00" type="truck" speed="5.80" pos="83.39" lane="B1A1_0" slope="0.00"/>
    </timestep>
    <timestep time="64.00">
        <vehicle id="0" x="2.78" y="100.71" angle="262.72" type="truck" speed="6.76" pos="4.55" lane=":A1_4_0" slope="0.00"/>
    </timestep>
    <timestep time="65.00">
        <vehicle id="0" x="-1.34" y="94.61" angle="211.49" type="truck" speed="7.82" pos="12.36" lane=":A1_4_0" slope="0.00"/>
    </timestep>
    <timestep time="66.00">
        <vehicle id="0" x="-1.60" y="86.47" angle="180.88" type="truck" speed="8.16" pos="6.33" lane="A1A0_0" slope="0.00"/>
    </timestep>
    <timestep time="67.00">
        <vehicle id="0" x="-1.60" y="77.31" angle="180.00" type="truck" speed="9.16" pos="15.49" lane="A1A0_0" slope="0.00"/>
    </timestep>
    <timestep time="68.00">
        <vehicle id="0" x="-1.60" y="67.23" angle="180.00" type="truck" speed="10.07" pos="25.57" lane="A1A0_0" slope="0.00"/>
    </timestep>
    <timestep time="69.00">
        <vehicle id="0" x="-1.60" y="56.39" angle="180.00" type="truck" speed="10.84" pos="36.41" lane="A1A0_0" slope="0.00"/>
    </timestep>
    <timestep time="70.00">
        <vehicle id="0" x="-1.60" y="44.34" angle="180.00" type="truck" speed="12.05" pos="48.46" lane="A1A0_0" slope="0.00"/>
    </timestep>
    <timestep time="71.00">
        <vehicle id="0" x="-1.60" y="31.56" angle="180.00" type="truck" speed="12.78" pos="61.24" lane="A1A0_0" slope="0.00"/>
    </timestep>
    <timestep time="72.00">
        <vehicle id="0" x="-1.60" y="17.90" angle="180.00" type="truck" speed="13.66" pos="74.90" lane="A1A0_0" slope="0.00"/>
    </timestep>
    <timestep time="73.00">
        <vehicle id="0" x="-1.60" y="4.18" angle="180.00" type="truck" speed="13.72" pos="88.62" lane="A1A0_0" slope="0.00"/>
    </timestep>
    <timestep time="74.00"/>
    <timestep time="75.00"/>
    <timestep time="76.00"/>
    <timestep time="77.00"/>
    <timestep time="78.00"/>
    <timestep time="79.00"/>
    <timestep time="80.00"/>
    <timestep time="81.00"/>
    <timestep time="82.00"/>
    <timestep time="83.00"/>
    <timestep time="84.00"/>
    <timestep time="85.00"/>
    <timestep time="86.00"/>
    <timestep time="87.00"/>
    <timestep time="88.00"/>
    <timestep time="89.00"/>
    <timestep time="90.00"/>
    <timestep time="91.00"/>
    <timestep time="92.00"/>
    <timestep time="93.00"/>
    <timestep time="94.00"/>
    <timestep time="95.00"/>
    <timestep time="96.00"/>
    <timestep time="97.00"/>
    <timestep time="98.00"/>
    <timestep time="99.00"/>
    <timestep time="100.00"/>
    <timestep time="101.00"/>
    <timestep time="102.00"/>
    <timestep time="103.00"/>
    <timestep time="104.00"/>
    <timestep time="105.00"/>
    <timestep time="106.00"/>
    <timestep time="107.00"/>
    <timestep time="108.00"/>
    <timestep time="109.00"/>
    <timestep time="110.00"/>
    <timestep time="111.00"/>
    <timestep time="112.00"/>
    <timestep time="113.00"/>
    <timestep time="114.00"/>
    <timestep time="115.00"/>
    <timestep time="116.00"/>
    <timestep time="117.00"/>
    <timestep time="118.00"/>
    <timestep time="119.00"/>
    <timestep time="120.00"/>
    <timestep time="121.00"/>
    <timestep time="122.00"/>
    <timestep time="123.00"/>
    <timestep time="124.00"/>
    <timestep time="125.00"/>
    <timestep time="126.00"/>
    <timestep time="127.00"/>
    <timestep time="128.00"/>
    <timestep time="129.00"/>
    <timestep time="130.00"/>
    <timestep time="131.00"/>
    <timestep time="132.00"/>
    <timestep time="133.00"/>
    <timestep time="134.00"/>
    <timestep time="135.00"/>
    <timestep time="136.00"/>
    <timestep time="137.00"/>
    <timestep time="138.00"/>
    <timestep time="139.00"/>
    <timestep time="140.00"/>
    <timestep time="141.00"/>
    <timestep time="142.00"/>
    <timestep time="143.00"/>
    <timestep time="144.00"/>
    <timestep time="145.00"/>
    <timestep time="146.00"/>
    <timestep time="147.00"/>
    <timestep time="148.00"/>
    <timestep time="149.00"/>
    <timestep time="150.00"/>
    <timestep time="151.00"/>
    <timestep time="152.00"/>
    <timestep time="153.00"/>
    <timestep time="154.00"/>
    <timestep time="155.00"/>
    <timestep time="156.00"/>
    <timestep time="157.00"/>
    <timestep time="158.00"/>
    <timestep time="159.00"/>
    <timestep time="160.00"/>
    <timestep time="161.00"/>
    <timestep time="162.00"/>
    <timestep time="163.00"/>
    <timestep time="164.00"/>
    <timestep time="165.00"/>
    <timestep time="166.00"/>
    <timestep time="167.00"/>
    <timestep time="168.00"/>
    <timestep time="169.00"/>
    <timestep time="170.00"/>
    <timestep time="171.00"/>
    <timestep time="172.00"/>
    <timestep time="173.00"/>
    <timestep time="174.00"/>
    <timestep time="175.00"/>
    <timestep time="176.00"/>
    <timestep time="177.00"/>
    <timestep time="178.00"/>
    <timestep time="179.00"/>
    <timestep time="180.00">
        <vehicle id="1" x="101.60" y="214.40" angle="0.00" type="truck" speed="0.00" pos="7.20" lane="B2B3_0" slope="0.00"/>
    </timestep>
    <timestep time="181.00">
        <vehicle id="1" x="101.60" y="215.17" angle="0.00" type="truck" speed="0.77" pos="7.97" lane="B2B3_0" slope="0.00"/>
    </timestep>
    <timestep time="182.00">
        <vehicle id="1" x="101.60" y="216.64" angle="0.00" type="truck" speed="1.47" pos="9.44" lane="B2B3_0" slope="0.00"/>
    </timestep>
    <timestep time="183.00">
        <vehicle id="1" x="101.60" y="219.14" angle="0.00" type="truck" speed="2.49" pos="11.94" lane="B2B3_0" slope="0.00"/>
    </timestep>
    <timestep time="184.00">
        <vehicle id="1" x="101.60" y="222.41" angle="0.00" type="truck" speed="3.28" pos="15.21" lane="B2B3_0" slope="0.00"/>
    </timestep>
    <timestep time="185.00">
        <vehicle id="1" x="101.60" y="226.55" angle="0.00" type="truck" speed="4.14" pos="19.35" lane="B2B3_0" slope="0.00"/>
    </timestep>
    <timestep time="186.00">
        <vehicle id="1" x="101.60" y="231.56" angle="0.00" type="truck" speed="5.01" pos="24.36" lane="B2B3_0" slope="0.00"/>
    </timestep>
    <timestep time="187.00">
        <vehicle id="1" x="101.60" y="237.72" angle="0.00" type="truck" speed="6.16" pos="30.52" lane="B2B3_0" slope="0.00"/>
    </timestep>
    <timestep time="188.00">
        <vehicle id="1" x="101.60" y="245.01" angle="0.00" type="truck" speed="7.29" pos="37.81" lane="B2B3_0" slope="0.00"/>
    </timestep>
    <timestep time="189.00">
        <vehicle id="1" x="101.60" y="253.36" angle="0.00" type="truck" speed="8.35" pos="46.16" lane="B2B3_0" slope="0.00"/>
    </timestep>
    <timestep time="190.00">
        <vehicle id="1" x="101.60" y="262.68" angle="0.00" type="truck" speed="9.32" pos="55.48" lane="B2B3_0" slope="0.00"/>
    </timestep>
    <timestep time="191.00">
        <vehicle id="1" x="101.60" y="273.15" angle="0.00" type="truck" speed="10.47" pos="65.95" lane="B2B3_0" slope="0.00"/>
    </timestep>
    <timestep time="192.00">
        <vehicle id="1" x="101.60" y="284.07" angle="0.00" type="truck" speed="10.92" pos="76.87" lane="B2B3_0" slope="0.00"/>
    </timestep>
    <timestep time="193.00">
        <vehicle id="1" x="101.60" y="291.04" angle="0.00" type="truck" speed="6.97" pos="83.84" lane="B2B3_0" slope="0.00"/>
    </timestep>
    <timestep time="194.00">
        <vehicle id="1" x="100.66" y="294.07" angle="352.11" type="truck" speed="3.36" pos="0.15" lane=":B3_19_0" slope="0.00"/>
    </timestep>
    <timestep time="195.00">
        <vehicle id="1" x="98.40" y="292.37" angle="296.27" type="truck" speed="3.50" pos="0.43" lane="B3B2_0" slope="0.00"/>
    </timestep>
    <timestep time="196.00">
        <vehicle id="1" x="98.40" y="288.12" angle="195.05" type="truck" speed="4.25" pos="4.68" lane="B3B2_0" slope="0.00"/>
    </timestep>
    <timestep time="197.00">
        <vehicle id="1" x="98.40" y="282.57" angle="180.00" type="truck" speed="5.55" pos="10.23" lane="B3B2_0" slope="0.00"/>
    </timestep>
    <timestep time="198.00">
        <vehicle id="1" x="98.40" y="275.83" angle="180.00" type="truck" speed="6.75" pos="16.97" lane="B3B2_0" slope="0.00"/>
    </timestep>
    <timestep time="199.00">
        <vehicle id="1" x="98.40" y="267.94" angle="180.00" type="truck" speed="7.89" pos="24.86" lane="B3B2_0" slope="0.00"/>
    </timestep>
    <timestep time="200.00">
        <vehicle id="1" x="98.40" y="258.84" angle="180.00" type="truck" speed="9.10" pos="33.96" lane="B3B2_0" slope="0.00"/>
    </timestep>
    <timestep time="201.00">
        <vehicle id="1" x="98.40" y="248.72" angle="180.00" type="truck" speed="10.12" pos="44.08" lane="B3B2_0" slope="0.00"/>
    </timestep>
    <timestep time="202.00">
        <vehicle id="1" x="98.40" y="237.62" angle="180.00" type="truck" speed="11.10" pos="55.18" lane="B3B2_0" slope="0.00"/>
    </timestep>
    <timestep time="203.00">
        <vehicle id="1" x="98.40" y="225.50" angle="180.00" type="truck" speed="12.12" pos="67.30" lane="B3B2_0" slope="0.00"/>
    </timestep>
    <timestep time="204.00">
        <vehicle id="1" x="98.40" y="212.45" angle="180.00" type="truck" speed="13.05" pos="80.35" lane="B3B2_0" slope="0.00"/>
    </timestep>
    <timestep time="205.00">
        <vehicle id="1" x="98.40" y="199.30" angle="180.00" type="truck" speed="13.15" pos="7.90" lane=":B2_1_0" slope="0.00"/>
    </timestep>
    <timestep time="206.00">
        <vehicle id="1" x="98.40" y="185.89" angle="180.00" type="truck" speed="13.42" pos="6.91" lane="B2B1_0" slope="0.00"/>
    </timestep>
    <timestep time="207.00">
        <vehicle id="1" x="98.40" y="172.63" angle="180.00" type="truck" speed="13.25" pos="20.17" lane="B2B1_0" slope="0.00"/>
    </timestep>
    <timestep time="208.00">
        <vehicle id="1" x="98.40" y="159.25" angle="180.00" type="truck" speed="13.38" pos="33.55" lane="B2B1_0" slope="0.00"/>
    </timestep>
    <timestep time="209.00">
        <vehicle id="1" x="98.40" y="146.00" angle="180.00" type="truck" speed="13.25" pos="46.80" lane="B2B1_0" slope="0.00"/>
    </timestep>
    <timestep time="210.00">
        <vehicle id="1" x="98.40" y="133.14" angle="180.00" type="truck" speed="12.86" pos="59.66" lane="B2B1_0" slope="0.00"/>
    </timestep>
    <timestep time="211.00">
        <vehicle id="1" x="98.40" y="120.28" angle="180.00" type="truck" speed="12.86" pos="72.52" lane="B2B1_0" slope="0.00"/>
    </timestep>
    <timestep time="212.00">
        <vehicle id="1" x="98.40" y="107.10" angle="180.00" type="truck" speed="13.18" pos="0.10" lane=":B1_1_0" slope="0.00"/>
    </timestep>
    <timestep time="213.00">
        <vehicle id="1" x="98.40" y="94.10" angle="180.00" type="truck" speed="13.00" pos="13.10" lane=":B1_1_0" slope="0.00"/>
    </timestep>
    <timestep time="214.00">
        <vehicle id="1" x="98.40" y="81.00" angle="180.00" type="truck" speed="13.11" pos="11.80" lane="B1B0_0" slope="0.00"/>
    </timestep>
    <timestep time="215.00">
        <vehicle id="1" x="98.40" y="68.18" angle="180.00" type="truck" speed="12.81" pos="24.62" lane="B1B0_0" slope="0.00"/>
    </timestep>
    <timestep time="216.00">
        <vehicle id="1" x="98.40" y="55.19" angle="180.00" type="truck" speed="12.99" pos="37.61" lane="B1B0_0" slope="0.00"/>
    </timestep>
    <timestep time="217.00">
        <vehicle id="1" x="98.40" y="42.04" angle="180.00" type="truck" speed="13.15" pos="50.76" lane="B1B0_0" slope="0.00"/>
    </timestep>
    <timestep time="218.00">
        <vehicle id="1" x="98.40" y="28.93" angle="180.00" type="truck" speed="13.12" pos="63.87" lane="B1B0_0" slope="0.00"/>
    </timestep>
    <timestep time="219.00">
        <vehicle id="1" x="98.40" y="15.53" angle="180.00" type="truck" speed="13.40" pos="77.27" lane="B1B0_0" slope="0.00"/>
    </timestep>
    <timestep time="220.00"/>
    <timestep time="221.00"/>
    <timestep time="222.00"/>
    <timestep time="223.00"/>
    <timestep time="224.00"/>
    <timestep time="225.00"/>
    <timestep time="226.00"/>
    <timestep time="227.00"/>
    <timestep time="228.00"/>
    <timestep time="229.00"/>
    <timestep time="230.00"/>
    <timestep time="231.00"/>
    <timestep time="232.00"/>
    <timestep time="233.00"/>
    <timestep time="234.00"/>
    <timestep time="235.00"/>
    <timestep time="236.00"/>
    <timestep time="237.00"/>
    <timestep time="238.00"/>
    <timestep time="239.00"/>
    <timestep time="240.00"/>
    <timestep time="241.00"/>
    <timestep time="242.00"/>
    <timestep time="243.00"/>
    <timestep time="244.00"/>
    <timestep time="245.00"/>
    <timestep time="246.00"/>
    <timestep time="247.00"/>
    <timestep time="248.00"/>
    <timestep time="249.00"/>
    <timestep time="250.00"/>
    <timestep time="251.00"/>
    <timestep time="252.00"/>
    <timestep time="253.00"/>
    <timestep time="254.00"/>
    <timestep time="255.00"/>
    <timestep time="256.00"/>
    <timestep time="257.00"/>
    <timestep time="258.00"/>
    <timestep time="259.00"/>
    <timestep time="260.00"/>
    <timestep time="261.00"/>
    <timestep time="262.00"/>
    <timestep time="263.00"/>
    <timestep time="264.00"/>
    <timestep time="265.00"/>
    <timestep time="266.00"/>
    <timestep time="267.00"/>
    <timestep time="268.00"/>
    <timestep time="269.00"/>
    <timestep time="270.00"/>
    <timestep time="271.00"/>
    <timestep time="272.00"/>
    <timestep time="273.00"/>
    <timestep time="274.00"/>
    <timestep time="275.00"/>
    <timestep time="276.00"/>
    <timestep time="277.00"/>
    <timestep time="278.00"/>
    <timestep time="279.00"/>
    <timestep time="280.00"/>
    <timestep time="281.00"/>
    <timestep time="282.00"/>
    <timestep time="283.00"/>
    <timestep time="284.00"/>
    <timestep time="285.00"/>
    <timestep time="286.00"/>
    <timestep time="287.00"/>
    <timestep time="288.00"/>
    <timestep time="289.00"/>
    <timestep time="290.00"/>
    <timestep time="291.00"/>
    <timestep time="292.00"/>
    <timestep time="293.00"/>
    <timestep time="294.00"/>
    <timestep time="295.00"/>
    <timestep time="296.00"/>
    <timestep time="297.00"/>
    <timestep time="298.00"/>
    <timestep time="299.00"/>
    <timestep time="300.00"/>
    <timestep time="301.00"/>
    <timestep time="302.00"/>
    <timestep time="303.00"/>
    <timestep time="304.00"/>
    <timestep time="305.00"/>
    <timestep time="306.00"/>
    <timestep time="307.00"/>
    <timestep time="308.00"/>
    <timestep time="309.00"/>
    <timestep time="310.00"/>
    <timestep time="311.00"/>
    <timestep time="312.00"/>
    <timestep time="313.00"/>
    <timestep time="314.00"/>
    <timestep time="315.00"/>
    <timestep time="316.00"/>
    <timestep time="317.00"/>
    <timestep time="318.00"/>
    <timestep time="319.00"/>
    <timestep time="320.00"/>
    <timestep time="321.00"/>
    <timestep time="322.00"/>
    <timestep time="323.00"/>
    <timestep time="324.00"/>
    <timestep time="325.00"/>
    <timestep time="326.00"/>
    <timestep time="327.00"/>
    <timestep time="328.00"/>
    <timestep time="329.00"/>
    <timestep time="330.00"/>
    <timestep time="331.00"/>
    <timestep time="332.00"/>
    <timestep time="333.00"/>
    <timestep time="334.00"/>
    <timestep time="335.00"/>
    <timestep time="336.00"/>
    <timestep time="337.00"/>
    <timestep time="338.00"/>
    <timestep time="339.00"/>
    <timestep time="340.00"/>
    <timestep time="341.00"/>
    <timestep time="342.00"/>
    <timestep time="343.00"/>
    <timestep time="344.00"/>
    <timestep time="345.00"/>
    <timestep time="346.00"/>
    <timestep time="347.00"/>
    <timestep time="348.00"/>
    <timestep time="349.00"/>
    <timestep time="350.00"/>
    <timestep time="351.00"/>
    <timestep time="352.00"/>
    <timestep time="353.00"/>
    <timestep time="354.00"/>
    <timestep time="355.00"/>
    <timestep time="356.00"/>
    <timestep time="357.00"/>
    <timestep time="358.00"/>
    <timestep time="359.00"/>
    <timestep time="360.00">
        <vehicle id="2" x="301.60" y="212.30" angle="0.00" type="sedan" speed="0.00" pos="5.10" lane="D2D3_0" slope="0.00"/>
    </timestep>
    <timestep time="361.00">
        <vehicle id="2" x="301.60" y="214.32" angle="0.00" type="sedan" speed="2.02" pos="7.12" lane="D2D3_0" slope="0.00"/>
    </timestep>
    <timestep time="362.00">
        <vehicle id="2" x="301.60" y="218.17" angle="0.00" type="sedan" speed="3.85" pos="10.97" lane="D2D3_0" slope="0.00"/>
    </timestep>
    <timestep time="363.00">
        <vehicle id="2" x="301.60" y="224.37" angle="0.00" type="sedan" speed="6.19" pos="17.17" lane="D2D3_0" slope="0.00"/>
    </timestep>
    <timestep time="364.00">
        <vehicle id="2" x="301.60" y="233.08" angle="0.00" type="sedan" speed="8.71" pos="25.88" lane="D2D3_0" slope="0.00"/>
    </timestep>
    <timestep time="365.00">
        <vehicle id="2" x="301.60" y="243.47" angle="0.00" type="sedan" speed="10.40" pos="36.27" lane="D2D3_0" slope="0.00"/>
    </timestep>
    <timestep time="366.00">
        <vehicle id="2" x="301.60" y="256.22" angle="0.00" type="sedan" speed="12.74" pos="49.02" lane="D2D3_0" slope="0.00"/>
    </timestep>
    <timestep time="367.00">
        <vehicle id="2" x="301.60" y="269.37" angle="0.00" type="sedan" speed="13.15" pos="62.17" lane="D2D3_0" slope="0.00"/>
    </timestep>
    <timestep time="368.00">
        <vehicle id="2" x="301.60" y="282.36" angle="0.00" type="sedan" speed="12.99" pos="75.16" lane="D2D3_0" slope="0.00"/>
    </timestep>
    <timestep time="369.00">
        <vehicle id="2" x="301.60" y="292.67" angle="0.00" type="sedan" speed="10.31" pos="85.47" lane="D2D3_0" slope="0.00"/>
    </timestep>
    <timestep time="370.00">